version 2
run General-0-20220118-16:19:37-483
attr configname General
attr datetime 20220118-16:19:37
attr experiment General
attr inifile omnetpp.ini
attr iterationvars ""
attr iterationvarsf ""
attr measurement ""
attr network Tictoc8
attr processid 483
attr repetition 0
attr replication #0
attr resultdir results
attr runnumber 0
attr seedset 0

vector 0 Tictoc8.nod3 denborak ETV
vector 1 Tictoc8.nod3 jauziak ETV
vector 2 Tictoc8.nod4 denborak ETV
vector 3 Tictoc8.nod4 jauziak ETV
0	13	1.236380194242	0.787
0	41	2.582165379024	0.977
0	73	4.187365379024	1.605
0	83	4.431565379024	0.244
0	95	5.201765379024	0.77
0	137	8.514165379024	0.162
0	139	8.720365379024	0.206
0	141	8.782565379024	0.062
0	163	9.787765379024	1.005
0	217	12.860565379024	1.11
0	239	13.664765379024	0.804
0	333	18.381365379024	0.18
0	347	19.439565379024	1.058
0	429	24.188965379024	0.858
0	501	28.049565379024	0.46
0	563	31.968365379024	2.649
0	733	41.009965379024	0.236
0	753	42.065165379024	1.055
0	765	42.523365379024	0.458
0	779	43.095565379024	0.572
0	825	44.921565379024	0.071
0	831	45.294765379024	0.373
0	841	45.529965379024	0.235
0	867	46.667165379024	1.137
0	897	48.515565379024	0.769
0	993	53.841765379024	0.507
0	997	54.133965379024	0.292
0	1003	54.259165379024	0.125
0	1005	54.400365379024	0.141
0	1057	57.668565379024	3.268
0	1107	60.404165379024	1.537
0	1129	61.588565379024	0.351
0	1177	63.526965379024	0.16
0	1189	63.836565379024	0.102
0	1213	65.323765379024	1.487
0	1389	74.651365379024	0.084
0	1393	74.662565379024	0.011
0	1397	74.977765379024	0.315
0	1429	76.126965379024	1.149
0	1541	81.529965379024	2.632
0	1653	86.684565379024	0.562
0	1659	86.891765379024	0.207
0	1681	87.860165379024	0.61
0	1845	99.052765379024	0.612
0	2093	113.632165379024	3.033
0	2123	114.980565379024	0.953
0	2157	116.803965379024	0.86
0	2173	117.330165379024	0.526
0	2333	128.132365379024	4.547
0	2607	145.124765379024	2.982
0	2761	153.483165379024	0.276
0	2785	154.646365379024	1.163
0	2829	156.796965379024	0.363
0	2853	158.280365379024	1.202
0	2877	159.178765379024	0.803
0	3125	172.286365379024	1.449
0	3235	178.223965379024	0.86
0	3259	179.284565379024	0.254
0	3271	179.752765379024	0.468
0	3301	182.669365379024	1.037
0	3371	187.724165379024	0.964
0	3569	197.675765379024	3.941
0	3571	197.715965379024	0.04
0	3587	198.859165379024	1.143
0	3765	209.370765379024	0.752
0	3771	209.573165379024	0.101
0	3789	210.036365379024	0.463
0	3933	218.249765379024	3.739
0	3953	219.732965379024	1.483
0	4011	222.869965379024	1.608
0	4015	222.994165379024	0.124
0	4017	223.103365379024	0.109
0	4029	223.620565379024	0.517
0	4063	225.645965379024	0.166
0	4121	229.177165379024	3.531
0	4195	232.922965379024	0.29
0	4291	238.486765379024	0.731
0	4395	244.201565379024	0.588
0	4401	244.309765379024	0.108
0	4405	244.742965379024	0.433
0	4453	246.817165379024	2.074
0	4457	247.019365379024	0.202
0	4495	250.157765379024	1.954
0	4521	252.609165379024	2.257
0	4535	253.261365379024	0.652
0	4555	254.513765379024	0.05
0	4583	256.856965379024	2.343
0	4605	258.157165379024	1.3
0	4759	268.456765379024	1.086
0	4783	269.929965379024	1.473
0	4925	278.041565379024	0.428
0	5009	282.750365379024	0.237
0	5019	283.127565379024	0.377
0	5057	285.805965379024	1.483
0	5069	286.146365379024	0.105
0	5095	287.834565379024	1.688
0	5219	295.130365379024	0.343
0	5261	297.039765379024	1.308
0	5349	301.957365379024	0.894
0	5479	309.505765379024	1.636
0	5495	310.219365379024	0.012
0	5497	310.263565379024	0.044
0	5501	310.534765379024	0.271
0	5603	316.969765379024	0.339
0	5637	319.070565379024	0.746
0	5639	319.094765379024	0.024
0	5641	319.107965379024	0.013
0	5645	319.313165379024	0.205
0	5719	323.180565379024	0.128
0	5723	323.581765379024	0.401
0	5751	324.732965379024	1.151
0	5789	326.112765379024	0.505
0	5803	326.817965379024	0.705
0	5853	329.931165379024	3.113
0	5891	331.548565379024	0.973
0	5897	331.875965379024	0.019
0	5913	333.440165379024	1.564
0	5967	336.272565379024	1.416
0	6035	339.374565379024	0.123
0	6047	339.927765379024	0.553
0	6093	342.286365379024	1.192
0	6095	342.393565379024	0.107
0	6117	344.258765379024	1.865
0	6121	344.530965379024	0.272
0	6145	345.997165379024	1.466
0	6201	348.649365379024	2.652
0	6221	349.774765379024	0.816
0	6317	355.578165379024	4.042
0	6339	356.426565379024	0.298
0	6443	361.243965379024	1.278
0	6523	364.803165379024	0.185
0	6581	367.352565379024	1.159
0	6597	368.582765379024	1.23
0	6629	371.104365379024	1.457
0	6635	371.352565379024	0.248
0	6637	371.377765379024	0.025
0	6669	373.666965379024	2.289
0	6683	374.317165379024	0.65
0	6699	375.350365379024	1.033
0	6821	382.255965379024	0.3
0	6825	382.470165379024	0.214
0	6943	388.667165379024	0.51
0	6967	389.685765379024	0.505
0	6989	390.736165379024	0.525
0	6999	391.501365379024	0.765
0	7001	392.110565379024	0.609
0	7003	392.178765379024	0.068
0	7017	392.645965379024	0.467
0	7203	403.292565379024	1.7
0	7345	411.080165379024	2.26
0	7475	418.629165379024	0.047
0	7513	421.765365379024	3.136
0	7537	422.937765379024	0.475
0	7601	426.678365379024	0.82
0	7605	426.770765379024	0.046
0	7643	428.898965379024	2.128
0	7829	439.454765379024	0.811
0	8025	451.274565379024	0.149
0	8031	451.489765379024	0.215
0	8125	457.898965379024	6.409
0	8219	463.477965379024	0.431
0	8233	463.776165379024	0.298
0	8363	471.705965379024	2.9
0	8553	483.432765379024	1.464
0	8613	486.101765379024	1.72
0	8623	486.567965379024	0.466
0	8651	487.818165379024	1.25
0	8749	493.477365379024	2.469
0	8897	501.802765379024	1.052
0	8953	505.525165379024	0.54
0	8965	506.007365379024	0.482
0	8991	507.108165379024	0.055
0	8999	507.308365379024	0.2
0	9093	513.832965379024	4.517
0	9117	515.256565379024	0.078
0	9155	516.890765379024	1.634
0	9183	518.547965379024	1.657
0	9193	519.316165379024	0.768
0	9299	523.915965379024	0.564
0	9313	525.513165379024	1.597
0	9351	527.502765379024	0.337
0	9367	527.878165379024	0.116
0	9369	527.902365379024	0.024
0	9387	528.444765379024	0.271
0	9549	538.271965379024	2.214
0	9703	546.238965379024	0.554
0	9749	548.977365379024	1.832
0	9827	553.494565379024	4.517
0	9855	555.337165379024	0.416
0	10017	566.279565379024	3.412
0	10065	568.670165379024	2.078
0	10175	575.719765379024	1.196
0	10239	578.591765379024	0.335
0	10315	583.657965379024	0.936
0	10331	584.190165379024	0.532
0	10641	599.479965379024	2.766
0	10793	608.851965379024	2.766
0	10825	610.224565379024	0.817
0	11015	621.128765379024	2.562
0	11085	624.754565379024	1.208
0	11111	626.266365379024	0.015
0	11113	626.272565379024	0.006
0	11131	627.144765379024	0.872
0	11135	627.736965379024	0.592
0	11277	635.483965379024	0.176
0	11299	637.790165379024	2.306
0	11301	637.980365379024	0.19
0	11303	638.019565379024	0.039
0	11307	638.170765379024	0.151
0	11315	638.593965379024	0.423
0	11349	640.937165379024	2.343
0	11429	644.351565379024	2.137
0	11461	646.580165379024	0.5
0	11475	647.338565379024	0.47
0	11503	649.175765379024	1.837
0	11539	652.018565379024	1.219
0	11689	660.709765379024	2.962
0	11767	665.532165379024	3.409
0	11785	666.670565379024	0.044
0	11799	667.771765379024	1.101
0	11833	670.320965379024	2.549
0	11895	672.782165379024	0.101
0	11915	673.606365379024	0.824
0	12117	686.266365379024	2.554
0	12135	688.215565379024	1.949
0	12237	692.404965379024	0.043
0	12245	692.698165379024	0.293
0	12261	693.577365379024	0.879
0	12309	697.000565379024	3.423
0	12355	700.566165379024	0.925
0	12453	705.188765379024	0.163
0	12461	705.568965379024	0.38
0	12485	706.456165379024	0.887
0	12543	709.480365379024	3.024
0	12553	709.804565379024	0.324
0	12701	718.103565379024	1.369
0	12811	723.727765379024	0.224
0	12845	725.667165379024	0.456
0	12859	726.449365379024	0.782
0	12885	727.525765379024	0.871
0	12933	729.843965379024	2.318
0	12983	733.132365379024	2.409
0	13015	734.998565379024	1.866
0	13219	744.040565379024	2.186
0	13291	748.277165379024	2.115
0	13295	748.732365379024	0.455
0	13299	749.076565379024	0.344
0	13405	754.622765379024	5.546
0	13617	766.853365379024	8.561
0	13669	769.307165379024	0.152
0	13883	779.911165379024	2.177
0	13887	779.977565379024	0.033
0	13891	780.191765379024	0.214
0	14139	795.379765379024	0.663
0	14161	796.199965379024	0.82
0	14495	816.980365379024	0.249
0	14633	824.311565379024	0.48
0	14785	831.894965379024	0.175
0	14985	843.489165379024	0.07
0	15011	844.908365379024	1.419
0	15187	853.734165379024	0.694
0	15201	854.603365379024	0.869
0	15227	856.277765379024	1.055
0	15345	862.492965379024	1.149
0	15733	885.278565379024	3.609
0	15767	887.466165379024	0.482
0	15771	887.559365379024	0.093
0	15773	887.642565379024	0.083
0	15797	889.623765379024	1.981
0	15845	892.855565379024	0.607
0	15849	892.869765379024	0.014
0	15861	893.814965379024	0.945
0	15919	895.993965379024	0.526
0	15965	898.735765379024	0.778
0	16061	902.366165379024	1.34
0	16107	905.690365379024	3.324
0	16229	913.272365379024	3.659
0	16235	913.654565379024	0.382
0	16295	918.109965379024	0.222
0	16315	919.008165379024	0.898
0	16457	925.819765379024	0.603
0	16469	926.758965379024	0.939
0	16521	928.931365379024	0.38
0	16545	929.734565379024	0.803
0	16551	930.053765379024	0.319
0	16557	930.452965379024	0.399
0	16719	939.915165379024	0.178
0	16745	941.316365379024	1.401
0	16889	948.544765379024	2.014
0	16915	949.729965379024	1.185
0	17067	956.748965379024	4.342
0	17109	958.454165379024	1.705
0	17171	961.948365379024	3.494
0	17343	972.770365379024	1.694
0	17595	983.425765379024	0.858
0	17665	986.204565379024	0.996
0	17767	991.843765379024	0.043
0	17771	991.979965379024	0.136
0	17809	993.889165379024	1.909
0	17881	997.618765379024	1.092
1	13	1.236380194242	2
1	41	2.582165379024	3
1	73	4.187365379024	2
1	83	4.431565379024	2
1	95	5.201765379024	3
1	137	8.514165379024	2
1	139	8.720365379024	4
1	141	8.782565379024	2
1	163	9.787765379024	3
1	217	12.860565379024	4
1	239	13.664765379024	2
1	333	18.381365379024	2
1	347	19.439565379024	3
1	429	24.188965379024	2
1	501	28.049565379024	3
1	563	31.968365379024	3
1	733	41.009965379024	4
1	753	42.065165379024	2
1	765	42.523365379024	2
1	779	43.095565379024	2
1	825	44.921565379024	2
1	831	45.294765379024	2
1	841	45.529965379024	2
1	867	46.667165379024	2
1	897	48.515565379024	2
1	993	53.841765379024	3
1	997	54.133965379024	2
1	1003	54.259165379024	2
1	1005	54.400365379024	2
1	1057	57.668565379024	2
1	1107	60.404165379024	2
1	1129	61.588565379024	4
1	1177	63.526965379024	2
1	1189	63.836565379024	2
1	1213	65.323765379024	2
1	1389	74.651365379024	2
1	1393	74.662565379024	2
1	1397	74.977765379024	2
1	1429	76.126965379024	2
1	1541	81.529965379024	3
1	1653	86.684565379024	2
1	1659	86.891765379024	2
1	1681	87.860165379024	2
1	1845	99.052765379024	2
1	2093	113.632165379024	2
1	2123	114.980565379024	2
1	2157	116.803965379024	3
1	2173	117.330165379024	2
1	2333	128.132365379024	2
1	2607	145.124765379024	3
1	2761	153.483165379024	2
1	2785	154.646365379024	3
1	2829	156.796965379024	2
1	2853	158.280365379024	2
1	2877	159.178765379024	2
1	3125	172.286365379024	3
1	3235	178.223965379024	2
1	3259	179.284565379024	3
1	3271	179.752765379024	3
1	3301	182.669365379024	3
1	3371	187.724165379024	2
1	3569	197.675765379024	2
1	3571	197.715965379024	2
1	3587	198.859165379024	3
1	3765	209.370765379024	2
1	3771	209.573165379024	2
1	3789	210.036365379024	3
1	3933	218.249765379024	2
1	3953	219.732965379024	2
1	4011	222.869965379024	3
1	4015	222.994165379024	2
1	4017	223.103365379024	2
1	4029	223.620565379024	2
1	4063	225.645965379024	2
1	4121	229.177165379024	2
1	4195	232.922965379024	3
1	4291	238.486765379024	3
1	4395	244.201565379024	2
1	4401	244.309765379024	2
1	4405	244.742965379024	2
1	4453	246.817165379024	2
1	4457	247.019365379024	2
1	4495	250.157765379024	2
1	4521	252.609165379024	3
1	4535	253.261365379024	2
1	4555	254.513765379024	2
1	4583	256.856965379024	3
1	4605	258.157165379024	2
1	4759	268.456765379024	3
1	4783	269.929965379024	2
1	4925	278.041565379024	2
1	5009	282.750365379024	2
1	5019	283.127565379024	2
1	5057	285.805965379024	2
1	5069	286.146365379024	2
1	5095	287.834565379024	2
1	5219	295.130365379024	2
1	5261	297.039765379024	2
1	5349	301.957365379024	2
1	5479	309.505765379024	2
1	5495	310.219365379024	2
1	5497	310.263565379024	2
1	5501	310.534765379024	4
1	5603	316.969765379024	2
1	5637	319.070565379024	2
1	5639	319.094765379024	2
1	5641	319.107965379024	2
1	5645	319.313165379024	2
1	5719	323.180565379024	2
1	5723	323.581765379024	2
1	5751	324.732965379024	2
1	5789	326.112765379024	2
1	5803	326.817965379024	2
1	5853	329.931165379024	2
1	5891	331.548565379024	3
1	5897	331.875965379024	2
1	5913	333.440165379024	3
1	5967	336.272565379024	2
1	6035	339.374565379024	2
1	6047	339.927765379024	2
1	6093	342.286365379024	3
1	6095	342.393565379024	2
1	6117	344.258765379024	2
1	6121	344.530965379024	3
1	6145	345.997165379024	2
1	6201	348.649365379024	4
1	6221	349.774765379024	2
1	6317	355.578165379024	2
1	6339	356.426565379024	2
1	6443	361.243965379024	3
1	6523	364.803165379024	2
1	6581	367.352565379024	2
1	6597	368.582765379024	2
1	6629	371.104365379024	2
1	6635	371.352565379024	2
1	6637	371.377765379024	2
1	6669	373.666965379024	2
1	6683	374.317165379024	4
1	6699	375.350365379024	2
1	6821	382.255965379024	2
1	6825	382.470165379024	2
1	6943	388.667165379024	3
1	6967	389.685765379024	2
1	6989	390.736165379024	2
1	6999	391.501365379024	3
1	7001	392.110565379024	4
1	7003	392.178765379024	3
1	7017	392.645965379024	3
1	7203	403.292565379024	2
1	7345	411.080165379024	3
1	7475	418.629165379024	3
1	7513	421.765365379024	2
1	7537	422.937765379024	2
1	7601	426.678365379024	3
1	7605	426.770765379024	2
1	7643	428.898965379024	2
1	7829	439.454765379024	2
1	8025	451.274565379024	2
1	8031	451.489765379024	2
1	8125	457.898965379024	2
1	8219	463.477965379024	2
1	8233	463.776165379024	2
1	8363	471.705965379024	3
1	8553	483.432765379024	2
1	8613	486.101765379024	2
1	8623	486.567965379024	2
1	8651	487.818165379024	2
1	8749	493.477365379024	2
1	8897	501.802765379024	2
1	8953	505.525165379024	2
1	8965	506.007365379024	2
1	8991	507.108165379024	2
1	8999	507.308365379024	2
1	9093	513.832965379024	2
1	9117	515.256565379024	3
1	9155	516.890765379024	2
1	9183	518.547965379024	3
1	9193	519.316165379024	4
1	9299	523.915965379024	2
1	9313	525.513165379024	2
1	9351	527.502765379024	2
1	9367	527.878165379024	2
1	9369	527.902365379024	2
1	9387	528.444765379024	2
1	9549	538.271965379024	2
1	9703	546.238965379024	3
1	9749	548.977365379024	2
1	9827	553.494565379024	2
1	9855	555.337165379024	2
1	10017	566.279565379024	2
1	10065	568.670165379024	2
1	10175	575.719765379024	2
1	10239	578.591765379024	2
1	10315	583.657965379024	2
1	10331	584.190165379024	2
1	10641	599.479965379024	3
1	10793	608.851965379024	2
1	10825	610.224565379024	2
1	11015	621.128765379024	2
1	11085	624.754565379024	2
1	11111	626.266365379024	2
1	11113	626.272565379024	2
1	11131	627.144765379024	2
1	11135	627.736965379024	3
1	11277	635.483965379024	2
1	11299	637.790165379024	2
1	11301	637.980365379024	2
1	11303	638.019565379024	3
1	11307	638.170765379024	3
1	11315	638.593965379024	3
1	11349	640.937165379024	2
1	11429	644.351565379024	4
1	11461	646.580165379024	2
1	11475	647.338565379024	2
1	11503	649.175765379024	2
1	11539	652.018565379024	2
1	11689	660.709765379024	2
1	11767	665.532165379024	2
1	11785	666.670565379024	2
1	11799	667.771765379024	2
1	11833	670.320965379024	2
1	11895	672.782165379024	3
1	11915	673.606365379024	2
1	12117	686.266365379024	3
1	12135	688.215565379024	4
1	12237	692.404965379024	3
1	12245	692.698165379024	3
1	12261	693.577365379024	2
1	12309	697.000565379024	2
1	12355	700.566165379024	2
1	12453	705.188765379024	3
1	12461	705.568965379024	3
1	12485	706.456165379024	3
1	12543	709.480365379024	2
1	12553	709.804565379024	2
1	12701	718.103565379024	2
1	12811	723.727765379024	2
1	12845	725.667165379024	2
1	12859	726.449365379024	2
1	12885	727.525765379024	2
1	12933	729.843965379024	2
1	12983	733.132365379024	2
1	13015	734.998565379024	2
1	13219	744.040565379024	3
1	13291	748.277165379024	2
1	13295	748.732365379024	2
1	13299	749.076565379024	2
1	13405	754.622765379024	2
1	13617	766.853365379024	3
1	13669	769.307165379024	2
1	13883	779.911165379024	2
1	13887	779.977565379024	4
1	13891	780.191765379024	2
1	14139	795.379765379024	2
1	14161	796.199965379024	2
1	14495	816.980365379024	4
1	14633	824.311565379024	2
1	14785	831.894965379024	2
1	14985	843.489165379024	3
1	15011	844.908365379024	2
1	15187	853.734165379024	2
1	15201	854.603365379024	2
1	15227	856.277765379024	3
1	15345	862.492965379024	2
1	15733	885.278565379024	2
1	15767	887.466165379024	3
1	15771	887.559365379024	2
1	15773	887.642565379024	2
1	15797	889.623765379024	2
1	15845	892.855565379024	2
1	15849	892.869765379024	2
1	15861	893.814965379024	2
1	15919	895.993965379024	2
1	15965	898.735765379024	2
1	16061	902.366165379024	2
1	16107	905.690365379024	2
1	16229	913.272365379024	4
1	16235	913.654565379024	2
1	16295	918.109965379024	2
1	16315	919.008165379024	2
1	16457	925.819765379024	2
1	16469	926.758965379024	2
1	16521	928.931365379024	3
1	16545	929.734565379024	3
1	16551	930.053765379024	2
1	16557	930.452965379024	2
1	16719	939.915165379024	3
1	16745	941.316365379024	2
1	16889	948.544765379024	2
1	16915	949.729965379024	2
1	17067	956.748965379024	2
1	17109	958.454165379024	2
1	17171	961.948365379024	2
1	17343	972.770365379024	3
1	17595	983.425765379024	2
1	17665	986.204565379024	3
1	17767	991.843765379024	3
1	17771	991.979965379024	3
1	17809	993.889165379024	2
1	17881	997.618765379024	2
2	21	1.465145029356	0.318
2	33	2.304345029356	0.839
2	51	3.060862221343	1.672
2	57	3.348545029356	1.044
2	63	3.636062221343	0.575
2	121	7.596204316193	0.459
2	131	8.351965379024	3.15
2	153	9.455404316193	1.859
2	155	9.513604316193	0.058
2	165	9.912965379024	0.125
2	167	10.131804316193	0.618
2	177	10.554165379024	0.641
2	179	10.706004316193	0.574
2	199	11.750365379024	1.196
2	233	13.593004316193	0.597
2	237	13.632204316193	0.039
2	241	13.739404316193	0.107
2	249	14.382604316193	0.643
2	255	14.623965379024	0.959
2	259	14.794804316193	0.412
2	261	14.799165379024	0.175
2	287	16.143365379024	1.344
2	289	16.182565379024	0.039
2	293	16.514765379024	0.332
2	305	17.148404316193	1.123
2	307	17.249604316193	0.101
2	309	17.387804316193	0.138
2	323	18.020965379024	1.506
2	339	19.108004316193	1.72
2	355	19.746765379024	0.307
2	363	20.281965379024	0.535
2	367	20.534165379024	0.252
2	389	22.450604316193	0.004
2	395	22.552804316193	0.102
2	399	22.668365379024	2.134
2	401	22.766565379024	0.098
2	409	23.058004316193	0.505
2	415	23.330765379024	0.564
2	417	23.609204316193	0.551
2	419	23.628404316193	0.019
2	435	24.482604316193	0.854
2	463	26.457165379024	2.268
2	479	27.069404316193	1.059
2	483	27.589365379024	1.132
2	505	28.335765379024	0.286
2	507	28.367965379024	0.032
2	529	29.319165379024	0.951
2	571	32.475565379024	0.507
2	581	32.917965379024	0.206
2	609	34.307804316193	0.177
2	615	34.440004316193	0.132
2	623	35.044204316193	0.604
2	631	35.807165379024	2.889
2	653	36.980404316193	1.936
2	657	37.152365379024	1.345
2	711	40.204565379024	3.052
2	719	40.469804316193	0.857
2	727	40.773765379024	0.569
2	781	43.104765379024	0.009
2	789	43.409965379024	0.305
2	793	43.430165379024	0.02
2	801	44.267404316193	1.309
2	817	44.850365379024	1.42
2	849	45.801804316193	0.674
2	883	47.746365379024	1.079
2	905	49.191404316193	1.841
2	917	49.830804316193	0.314
2	921	50.114765379024	1.599
2	927	50.456965379024	0.342
2	945	51.648165379024	1.191
2	959	52.182404316193	1.312
2	985	53.334565379024	0.843
2	1075	58.398765379024	0.73
2	1085	58.866965379024	0.468
2	1099	59.843604316193	0.896
2	1123	61.237365379024	0.833
2	1171	63.366765379024	1.778
2	1185	63.632165379024	0.105
2	1215	65.339965379024	0.016
2	1217	65.365165379024	0.025
2	1275	68.642404316193	0.622
2	1279	68.844604316193	0.202
2	1283	69.114365379024	3.749
2	1285	69.513804316193	0.669
2	1313	71.187565379024	2.073
2	1339	72.295765379024	1.108
2	1341	72.334004316193	2.82
2	1347	72.609204316193	0.275
2	1351	72.939404316193	0.33
2	1361	73.257965379024	0.962
2	1367	73.603604316193	0.664
2	1385	74.567165379024	1.309
2	1419	75.732804316193	2.129
2	1421	75.746004316193	0.013
2	1431	76.182165379024	0.055
2	1433	76.200365379024	0.018
2	1449	76.916565379024	0.716
2	1453	77.037204316193	1.291
2	1459	77.442404316193	0.405
2	1473	77.964604316193	0.522
2	1479	78.057804316193	0.093
2	1499	78.897765379024	1.981
2	1517	79.929404316193	0.815
2	1523	80.148604316193	0.219
2	1543	81.596165379024	0.066
2	1573	83.174365379024	1.578
2	1575	83.316565379024	0.142
2	1581	83.424004316193	0.932
2	1585	83.983204316193	0.559
2	1599	84.609765379024	1.293
2	1601	84.767965379024	0.158
2	1625	86.066165379024	1.298
2	1631	86.122365379024	0.056
2	1667	87.249965379024	0.358
2	1685	88.059365379024	0.199
2	1705	89.253565379024	1.194
2	1721	90.761765379024	1.508
2	1781	94.555965379024	3.794
2	1791	95.171165379024	0.615
2	1793	95.308365379024	0.137
2	1805	96.303204316193	2.224
2	1835	98.440565379024	3.132
2	1855	100.231965379024	1.179
2	1877	101.823165379024	1.591
2	1897	104.026404316193	0.274
2	1907	104.637604316193	0.611
2	1919	105.021365379024	3.198
2	1927	105.529565379024	0.508
2	1955	107.565765379024	2.036
2	1999	109.990404316193	1.64
2	2007	110.429604316193	0.439
2	2027	111.213004316193	0.512
2	2037	111.599404316193	0.015
2	2041	111.669604316193	0.07
2	2043	111.681804316193	0.012
2	2071	112.934004316193	1.252
2	2081	113.387404316193	0.161
2	2085	113.434604316193	0.047
2	2089	113.494804316193	0.06
2	2101	114.027365379024	0.395
2	2113	114.356204316193	0.271
2	2127	115.220604316193	0.446
2	2143	115.943765379024	0.963
2	2163	116.954204316193	0.744
2	2185	118.342404316193	1.388
2	2207	120.402604316193	2.06
2	2209	120.644804316193	0.242
2	2211	120.675004316193	0.03
2	2213	120.682204316193	0.007
2	2237	121.970365379024	4.64
2	2247	122.310565379024	0.34
2	2253	122.695765379024	0.385
2	2257	123.234404316193	2.552
2	2259	123.246965379024	0.551
2	2265	123.585165379024	0.338
2	2267	123.754604316193	0.52
2	2299	125.748804316193	1.994
2	2317	127.037204316193	0.504
2	2321	127.443404316193	0.406
2	2339	128.419604316193	0.976
2	2345	128.560565379024	0.428
2	2375	131.574765379024	3.014
2	2383	131.899965379024	0.325
2	2389	132.088165379024	0.188
2	2395	132.432004316193	3.039
2	2409	132.971365379024	0.883
2	2413	133.023204316193	0.591
2	2417	133.127565379024	0.156
2	2477	137.298804316193	2.384
2	2485	137.644004316193	0.345
2	2499	138.041204316193	0.397
2	2501	138.312765379024	5.185
2	2507	138.452965379024	0.14
2	2515	139.350165379024	0.897
2	2551	141.564204316193	0.934
2	2555	141.620365379024	2.27
2	2563	142.142565379024	0.522
2	2565	142.213404316193	0.649
2	2573	142.489604316193	0.276
2	2611	145.234965379024	0.11
2	2621	145.663165379024	0.428
2	2647	146.902365379024	1.239
2	2663	148.141565379024	1.239
2	2673	148.607765379024	0.466
2	2691	149.363965379024	0.756
2	2703	149.664365379024	0.024
2	2727	151.282204316193	0.738
2	2729	151.755565379024	2.091
2	2731	151.792404316193	0.51
2	2745	152.943765379024	1.188
2	2753	153.206965379024	0.263
2	2757	153.397604316193	1.605
2	2769	153.743804316193	0.346
2	2771	153.867004316193	0.123
2	2791	154.979204316193	1.112
2	2803	155.563565379024	0.917
2	2825	156.433765379024	0.87
2	2839	157.078165379024	0.281
2	2857	158.375565379024	0.095
2	2891	159.706965379024	0.528
2	2909	160.486165379024	0.779
2	2929	162.052804316193	0.422
2	2933	162.257365379024	1.771
2	2937	162.449565379024	0.192
2	2939	162.623765379024	0.174
2	2951	162.797965379024	0.174
2	2953	162.822004316193	0.769
2	2971	163.880165379024	1.082
2	2983	164.460365379024	0.58
2	2991	164.685604316193	0.545
2	2993	164.825804316193	0.14
2	2995	165.159004316193	0.333
2	2997	165.242204316193	0.083
2	3013	166.127404316193	0.885
2	3017	166.349604316193	0.222
2	3031	166.843565379024	2.383
2	3067	168.969804316193	2.62
2	3073	169.468004316193	0.498
2	3087	170.451765379024	3.608
2	3089	170.533965379024	0.082
2	3091	170.612204316193	1.144
2	3101	170.837165379024	0.303
2	3187	176.174565379024	3.888
2	3199	176.515404316193	0.948
2	3205	176.833604316193	0.318
2	3209	176.913804316193	0.08
2	3215	177.363765379024	1.189
2	3241	178.524165379024	0.3
2	3251	178.871004316193	1.957
2	3255	179.030365379024	0.506
2	3275	180.185965379024	0.433
2	3337	185.561765379024	1.446
2	3349	186.759965379024	1.198
2	3385	188.540565379024	0.408
2	3389	188.699765379024	0.159
2	3409	189.709965379024	1.01
2	3421	190.600165379024	0.89
2	3439	191.754365379024	1.154
2	3457	192.385204316193	1.505
2	3491	193.734565379024	1.98
2	3505	194.235404316193	1.85
2	3543	196.606804316193	1.703
2	3565	197.523204316193	0.362
2	3581	198.317604316193	0.552
2	3589	198.961365379024	0.102
2	3619	200.337765379024	0.688
2	3623	200.613965379024	0.276
2	3627	200.780204316193	0.907
2	3629	200.799165379024	0.185
2	3631	200.845404316193	0.065
2	3639	202.100604316193	1.255
2	3655	202.527365379024	1.728
2	3663	203.421804316193	1.321
2	3667	203.518565379024	0.991
2	3687	204.525765379024	1.007
2	3697	205.092965379024	0.567
2	3713	206.483165379024	1.39
2	3715	206.512365379024	0.029
2	3757	208.618565379024	2.106
2	3797	210.731565379024	0.695
2	3801	210.791604316193	2.292
2	3805	210.855765379024	0.124
2	3827	212.516004316193	0.862
2	3833	212.668204316193	0.152
2	3839	212.860404316193	0.192
2	3843	212.976804316193	0.058
2	3847	213.382004316193	0.405
2	3851	213.504965379024	2.649
2	3853	213.769165379024	0.264
2	3855	213.802365379024	0.033
2	3871	214.510565379024	0.708
2	3877	214.683204316193	1.301
2	3923	217.106004316193	0.738
2	3939	218.796204316193	1.69
2	3945	218.969404316193	0.173
2	3955	219.788604316193	0.819
2	3957	220.058165379024	0.325
2	3963	220.441365379024	0.383
2	3969	220.913565379024	0.472
2	3977	221.261765379024	0.348
2	3997	222.053004316193	0.677
2	4003	222.313204316193	0.26
2	4019	223.211404316193	0.898
2	4055	225.364804316193	0.016
2	4057	225.386004316193	0.021
2	4059	225.479765379024	1.859
2	4087	226.785204316193	1.399
2	4091	226.989404316193	0.204
2	4095	227.127604316193	0.138
2	4103	227.507804316193	0.38
2	4137	230.195404316193	0.661
2	4143	230.289565379024	0.556
2	4145	230.459604316193	0.264
2	4155	231.001804316193	0.542
2	4187	232.632765379024	2.343
2	4201	233.200165379024	0.277
2	4219	233.843004316193	2.841
2	4259	236.286365379024	3.086
2	4279	237.755565379024	1.469
2	4309	239.167165379024	0.34
2	4311	239.286365379024	0.119
2	4345	241.980565379024	2.694
2	4353	242.489765379024	0.509
2	4361	242.678965379024	0.189
2	4363	242.795604316193	0.326
2	4373	243.102804316193	0.307
2	4383	243.613365379024	0.467
2	4389	243.831004316193	0.728
2	4417	245.037204316193	1.206
2	4471	248.203565379024	1.184
2	4475	248.428004316193	2.649
2	4491	249.957204316193	1.529
2	4499	250.351965379024	0.194
2	4533	253.237404316193	3.28
2	4551	254.463565379024	1.202
2	4619	259.448604316193	6.211
2	4633	260.724365379024	2.567
2	4681	264.026565379024	3.302
2	4687	264.883765379024	0.857
2	4691	264.987965379024	0.104
2	4701	265.382165379024	0.394
2	4711	266.055365379024	0.673
2	4729	267.370565379024	1.315
2	4745	268.012004316193	0.002
2	4765	269.029204316193	1.017
2	4791	270.272165379024	0.342
2	4801	270.716404316193	1.687
2	4823	271.782365379024	1.51
2	4845	272.878565379024	1.096
2	4853	273.848765379024	0.97
2	4869	274.537965379024	0.689
2	4881	275.526165379024	0.988
2	4887	275.896604316193	0.498
2	4915	277.613365379024	2.087
2	4927	278.168765379024	0.127
2	4967	280.159965379024	1.991
2	4997	282.015404316193	0.323
2	5005	282.513165379024	2.353
2	5033	284.322765379024	1.195
2	5063	286.041165379024	0.235
2	5073	286.638204316193	0.38
2	5101	288.188765379024	0.354
2	5119	289.468965379024	1.28
2	5121	289.540165379024	0.071
2	5143	290.764404316193	4.126
2	5149	291.070604316193	0.306
2	5155	291.291804316193	0.221
2	5167	291.986565379024	1.223
2	5171	292.358765379024	0.372
2	5205	294.377965379024	2.019
2	5211	294.787165379024	0.409
2	5239	295.731565379024	0.601
2	5315	300.329965379024	3.29
2	5327	301.063165379024	0.733
2	5357	302.205565379024	0.248
2	5377	303.180765379024	0.975
2	5389	303.672965379024	0.492
2	5391	303.744165379024	0.071
2	5417	305.832004316193	3.472
2	5419	305.857365379024	2.113
2	5457	307.869565379024	2.012
2	5467	309.009204316193	0.111
2	5485	309.724965379024	0.219
2	5493	310.207165379024	0.482
2	5503	310.634604316193	0.822
2	5507	310.760804316193	0.126
2	5523	311.821965379024	1.287
2	5541	313.040165379024	1.218
2	5553	313.545004316193	2.784
2	5597	316.630565379024	1.795
2	5609	317.358965379024	0.389
2	5617	318.065165379024	0.706
2	5621	318.324365379024	0.259
2	5647	319.323365379024	0.01
2	5649	319.354004316193	0.325
2	5659	320.556565379024	1.233
2	5671	320.927765379024	0.371
2	5693	321.947965379024	1.02
2	5711	322.622165379024	0.674
2	5737	324.322604316193	1.637
2	5761	325.039804316193	0.717
2	5763	325.163165379024	0.43
2	5769	325.315365379024	0.152
2	5781	325.607565379024	0.292
2	5825	328.170204316193	2.134
2	5845	329.562604316193	0.468
2	5851	329.833804316193	0.271
2	5865	330.575365379024	0.644
2	5895	331.856765379024	0.308
2	5923	333.764804316193	2.857
2	5977	336.862765379024	0.59
2	5991	337.280965379024	0.418
2	5993	337.292165379024	0.011
2	6029	339.251365379024	1.959
2	6031	339.263404316193	0.953
2	6059	340.132965379024	0.205
2	6069	341.094165379024	0.961
2	6103	343.283804316193	2.01
2	6105	343.647004316193	0.363
2	6107	343.728204316193	0.081
2	6113	344.066404316193	0.338
2	6137	345.411604316193	1.345
2	6149	346.279804316193	0.868
2	6205	348.958565379024	0.309
2	6251	351.535965379024	1.761
2	6265	352.670404316193	3.44
2	6283	353.707604316193	1.037
2	6289	354.053804316193	0.346
2	6319	355.678204316193	0.812
2	6333	356.128365379024	0.55
2	6349	356.868765379024	0.442
2	6357	357.172965379024	0.304
2	6385	358.684604316193	0.376
2	6387	358.908804316193	0.224
2	6395	359.189365379024	0.738
2	6403	359.545565379024	0.356
2	6407	359.672004316193	0.763
2	6411	359.965765379024	0.42
2	6415	360.290204316193	0.618
2	6441	361.037404316193	0.747
2	6451	361.494165379024	0.25
2	6469	362.719365379024	1.225
2	6491	363.503565379024	0.784
2	6495	363.612765379024	0.109
2	6517	364.617965379024	1.005
2	6549	365.946804316193	1.132
2	6553	366.193365379024	1.39
2	6605	369.153965379024	0.571
2	6613	369.647165379024	0.493
2	6627	371.084604316193	2.283
2	6649	372.184804316193	1.1
2	6665	373.532004316193	1.347