version 2
run General-0-20211230-21:21:53-4007
attr configname General
attr datetime 20211230-21:21:53
attr experiment General
attr inifile omnetpp.ini
attr iterationvars ""
attr iterationvarsf ""
attr measurement ""
attr network Tictoc8
attr processid 4007
attr repetition 0
attr replication #0
attr resultdir results
attr runnumber 0
attr seedset 0

vector 0 Tictoc8.nod4 denborak ETV
vector 1 Tictoc8.nod3 denborak ETV
0	17	1.236380194242	0.787
0	23	1.605065379024	0.977
0	37	2.445245029356	0.649
0	75	3.971593088168	2.04
0	79	4.203989264267	1.516
0	113	5.539189264267	1.335
0	139	6.955639196124	1.859
0	199	10.652239196124	0.575
0	209	11.182320722134	0.018
0	221	12.054520722134	0.872
0	237	13.199720722134	1.145
0	273	14.674839196124	0.393
0	289	15.525920722134	2.326
0	295	16.263120722134	0.737
0	305	16.706320722134	0.443
0	367	20.875920722134	1.389
0	373	21.247320722134	0.039
0	385	21.782520722134	0.535
0	403	22.469639196124	2.223
0	405	22.653720722134	0.871
0	409	22.826920722134	0.173
0	419	23.287120722134	0.46
0	435	24.049039196124	0.535
0	437	24.215320722134	0.928
0	443	24.459520722134	0.244
0	451	24.783439196124	0.116
0	453	24.856639196124	0.073
0	461	25.207839196124	0.351
0	469	25.430920722134	0.039
0	473	25.572120722134	0.141
0	475	25.590039196124	0.382
0	481	26.049239196124	0.459
0	485	26.147439196124	0.098
0	489	26.518320722134	0.946
0	501	26.859520722134	0.341
0	517	27.742720722134	0.883
0	525	28.056920722134	0.314
0	529	28.309120722134	0.252
0	535	28.814320722134	0.505
0	545	29.199639196124	3.052
0	573	30.857720722134	1.291
0	609	32.846320722134	1.032
0	659	35.723520722134	2.877
0	687	37.589639196124	1.873
0	743	39.740120722134	0.358
0	763	40.799320722134	1.059
0	767	40.976520722134	0.177
0	779	42.008239196124	2.894
0	783	42.027439196124	0.019
0	787	42.696720722134	1.72
0	815	43.891920722134	1.195
0	845	45.172120722134	1.28
0	849	45.395320722134	0.223
0	851	45.413520722134	0.018
0	853	45.496439196124	0.342
0	857	45.666720722134	0.253
0	865	46.554639196124	1.058
0	895	48.949039196124	0.458
0	903	49.415920722134	3.749
0	919	49.885239196124	0.936
0	929	50.753320722134	0.891
0	937	51.011520722134	0.258
0	959	51.498920722134	0.308
0	965	51.973120722134	0.474
0	983	52.742320722134	0.769
0	989	53.585520722134	0.843
0	997	54.195920722134	0.305
0	1021	55.616120722134	1.42
0	1043	56.660320722134	1.044
0	1075	58.928520722134	2.268
0	1083	59.241039196124	3.709
0	1087	59.253720722134	0.325
0	1097	60.086920722134	0.833
0	1117	61.908639196124	0.011
0	1133	63.217839196124	1.309
0	1139	63.287320722134	2.34
0	1179	64.669639196124	0.423
0	1181	64.689839196124	0.02
0	1197	65.173039196124	0.483
0	1211	65.931520722134	0.087
0	1213	65.947720722134	0.016
0	1215	66.013920722134	0.066
0	1219	66.277120722134	0.263
0	1229	66.895320722134	0.618
0	1237	67.354520722134	0.459
0	1241	67.501720722134	0.147
0	1273	69.482920722134	1.981
0	1275	69.888120722134	0.405
0	1281	70.152320722134	0.264
0	1291	70.967520722134	0.815
0	1309	71.998839196124	0.319
0	1325	73.162039196124	1.163
0	1401	77.944120722134	3.275
0	1437	80.012520722134	0.303
0	1439	80.017839196124	0.239
0	1475	81.514720722134	1.502
0	1493	82.551920722134	1.037
0	1499	82.997120722134	0.445
0	1509	83.710320722134	0.713
0	1513	83.917520722134	0.207
0	1523	84.527720722134	0.61
0	1537	85.534239196124	0.156
0	1539	85.606920722134	1.079
0	1551	86.203439196124	0.669
0	1565	87.198120722134	1.591
0	1581	88.091520722134	0.612
0	1591	89.023639196124	2.82
0	1613	90.472839196124	1.449
0	1699	94.249520722134	3.033
0	1707	95.240720722134	0.991
0	1711	95.748920722134	0.508
0	1725	96.321120722134	0.572
0	1789	99.580720722134	2.036
0	1795	100.185920722134	0.605
0	1797	100.581120722134	0.395
0	1803	100.845320722134	0.264
0	1813	101.405520722134	0.56
0	1815	101.582239196124	3.268
0	1829	102.462720722134	1.057
0	1853	103.225639196124	0.345
0	1855	103.238839196124	0.013
0	1859	103.340039196124	0.101
0	1877	104.262520722134	0.122
0	1883	104.633239196124	1.293
0	1887	104.866720722134	0.604
0	1951	108.324120722134	0.808
0	1963	108.988239196124	1.179
0	1965	109.070439196124	0.082
0	1989	109.927639196124	0.857
0	1995	110.242839196124	0.315
0	2019	111.392039196124	1.149
0	2029	111.914720722134	1.226
0	2087	115.444120722134	0.047
0	2131	117.056039196124	0.199
0	2133	117.131320722134	1.687
0	2143	117.824239196124	0.768
0	2235	124.422439196124	0.325
0	2255	125.597720722134	4.233
0	2303	127.740120722134	1.936
0	2319	128.448439196124	0.498
0	2345	130.093320722134	2.353
0	2355	130.791639196124	2.343
0	2367	131.923839196124	1.132
0	2373	131.975720722134	0.318
0	2399	133.356920722134	1.381
0	2405	133.545120722134	0.188
0	2415	134.281320722134	0.736
0	2523	141.559320722134	1.827
0	2569	145.131720722134	1.005
0	2577	145.732920722134	0.601
0	2585	146.272839196124	2.343
0	2617	147.990120722134	2.257
0	2641	149.292439196124	0.397
0	2651	149.884639196124	0.592
0	2663	150.435839196124	0.551
0	2667	150.613039196124	0.177
0	2687	151.425320722134	3.435
0	2701	152.216520722134	0.791
0	2707	152.587720722134	0.371
0	2715	152.742239196124	2.129
0	2727	153.607120722134	0.744
0	2729	153.656320722134	0.049
0	2751	155.746639196124	0.87
0	2801	158.295520722134	4.639
0	2843	160.618439196124	0.447
0	2909	164.037320722134	1.239
0	2911	164.108520722134	0.071
0	2913	164.163720722134	0.055
0	2915	164.195920722134	0.032
0	2943	166.087239196124	4.829
0	2967	166.748120722134	2.552
0	2977	167.257439196124	1.17
0	2985	167.651839196124	0.073
0	2999	168.549039196124	0.897
0	3017	170.128520722134	0.122
0	3033	170.819239196124	2.27
0	3037	170.988720722134	0.86
0	3041	171.341439196124	0.522
0	3055	172.396639196124	1.055
0	3141	177.847120722134	1.188
0	3143	178.009439196124	1.64
0	3147	178.114639196124	0.105
0	3237	182.545239196124	1.982
0	3245	183.135439196124	0.59
0	3251	183.430720722134	2.973
0	3253	183.553639196124	0.418
0	3293	185.730520722134	0.017
0	3297	186.015239196124	1.239
0	3315	186.535439196124	0.52
0	3349	188.451720722134	2.721
0	3377	189.471839196124	2.18
0	3403	190.589239196124	0.698
0	3443	192.100920722134	0.406
0	3455	193.446120722134	1.345
0	3491	195.224320722134	1.778
0	3499	195.363239196124	0.779
0	3513	196.200520722134	0.976
0	3535	197.134439196124	1.771
0	3567	199.657639196124	2.523
0	3575	200.149839196124	0.492
0	3577	200.317920722134	0.878
0	3599	202.372120722134	2.054
0	3631	204.993720722134	0.591
0	3661	206.075920722134	1.082
0	3673	206.638639196124	0.04
0	3709	208.843320722134	0.475
0	3715	209.021839196124	2.383
0	3753	210.368039196124	1.346
0	3757	210.577920722134	0.412
0	3763	210.874239196124	0.506
0	3765	211.472120722134	0.894
0	3851	216.818920722134	2.205
0	3865	217.388120722134	0.569
0	3881	218.107439196124	7.233
0	3921	220.575320722134	3.187
0	3931	221.465520722134	0.89
0	3949	222.534720722134	1.069
0	3955	223.144920722134	0.61
0	3957	223.696120722134	0.551
0	3985	225.641320722134	1.945
0	3987	225.765520722134	0.124
0	3995	226.081720722134	0.316
0	4003	226.598920722134	0.517
0	4019	227.812639196124	0.841
0	4023	227.936839196124	0.124
0	4029	228.050039196124	0.113
0	4167	235.645320722134	1.112
0	4195	237.352039196124	2.746
0	4203	237.830239196124	0.478
0	4207	237.989439196124	0.159
0	4219	238.677639196124	0.688
0	4237	239.313839196124	0.636
0	4249	240.159920722134	1.25
0	4259	241.179120722134	1.019
0	4269	241.946039196124	2.632
0	4297	243.674239196124	1.728
0	4309	244.625439196124	0.951
0	4385	249.337039196124	0.507
0	4407	250.908439196124	1.336
0	4421	251.362639196124	0.454
0	4449	252.416239196124	0.609
0	4469	254.067120722134	0.769
0	4475	254.586320722134	0.519
0	4483	255.518520722134	0.932
0	4491	255.967639196124	0.498
0	4503	256.732720722134	1.214
0	4531	258.520039196124	0.292
0	4537	258.750920722134	2.018
0	4549	259.552439196124	0.73
0	4555	259.888120722134	1.137
0	4557	260.132320722134	0.244
0	4565	260.696639196124	1.144
0	4567	260.862520722134	0.73
0	4569	260.929720722134	0.067
0	4577	261.164839196124	0.468
0	4613	262.868920722134	1.939
0	4633	264.353120722134	1.484
0	4635	264.519320722134	0.166
0	4677	267.712639196124	3.531
0	4683	268.299720722134	1.89
0	4687	268.440839196124	0.728
0	4701	268.880039196124	0.439
0	4713	269.623120722134	0.429
0	4757	272.139520722134	1.52
0	4791	274.245720722134	2.106
0	4809	275.574120722134	0.453
0	4847	277.312239196124	0.409
0	4863	278.881439196124	1.569
0	4867	279.116720722134	0.472
0	4881	279.801920722134	0.685
0	4919	282.447839196124	0.181
0	4941	283.556039196124	1.108
0	4949	283.705239196124	0.149
0	4977	284.876120722134	0.324
0	4987	285.619320722134	0.743
0	5017	287.429439196124	3.724
0	5041	289.345920722134	2.136
0	5051	289.797839196124	0.277
0	5147	294.804039196124	0.04
0	5175	295.824239196124	1.02
0	5185	296.445720722134	0.588
0	5195	296.786439196124	0.962
0	5199	296.917920722134	0.472
0	5201	296.975639196124	0.189
0	5271	301.247039196124	2.198
0	5307	303.088320722134	5.36
0	5309	303.225439196124	0.677
0	5317	303.769520722134	0.681
0	5339	304.951639196124	1.726
0	5359	306.464039196124	0.862
0	5361	306.480920722134	1.859
0	5379	307.180239196124	0.716
0	5399	308.331120722134	1.85
0	5407	308.693320722134	0.362
0	5409	308.771520722134	0.078
0	5419	309.323720722134	0.552
0	5435	310.162920722134	0.839
0	5449	310.911120722134	0.748
0	5455	311.084320722134	0.173
0	5461	311.277639196124	1.331
0	5477	312.014520722134	0.93
0	5487	312.462239196124	0.458
0	5491	312.839439196124	0.377
0	5495	313.028720722134	1.014
0	5511	314.228239196124	0.084
0	5513	314.283920722134	1.255
0	5515	314.397120722134	0.113
0	5519	314.750439196124	0.522
0	5525	315.150639196124	0.4
0	5527	315.395839196124	0.245
0	5529	315.489039196124	0.093
0	5533	315.666239196124	0.177
0	5557	316.641439196124	0.975
0	5559	316.712639196124	0.071
0	5567	317.039520722134	1.321
0	5569	317.181720722134	0.142
0	5571	317.189839196124	0.477
0	5573	317.192920722134	0.011
0	5599	318.529120722134	1.336
0	5615	319.768320722134	1.239
0	5651	322.420520722134	2.652
0	5655	322.625720722134	0.205
0	5663	323.217920722134	0.592
0	5725	326.392320722134	1.587
0	5735	326.974520722134	0.582
0	5751	327.640720722134	0.666
0	5775	328.424920722134	0.784
0	5785	329.395120722134	0.97
0	5823	331.410320722134	2.015
0	5853	332.823520722134	1.413
0	5855	332.884720722134	0.061
0	5861	333.175920722134	0.291
0	5873	333.583120722134	0.407
0	5941	338.615520722134	3.936
0	5971	340.031720722134	1.416
0	5983	341.121639196124	2.799
0	5991	341.329920722134	1.298
0	5997	341.993120722134	0.663
0	6035	342.949039196124	0.219
0	6043	343.291239196124	0.342
0	6061	343.827839196124	0.26
0	6123	348.411239196124	1.233
0	6135	349.145439196124	0.734
0	6145	349.459839196124	0.021
0	6163	350.345039196124	0.885
0	6169	350.663239196124	0.318
0	6173	350.867439196124	0.204
0	6217	352.640320722134	2.314
0	6247	354.007920722134	0.105
0	6251	354.171120722134	0.163
0	6257	354.675839196124	0.366
0	6267	355.365320722134	1.194
0	6279	356.103520722134	0.738
0	6283	356.492720722134	0.389
0	6285	356.594039196124	1.918
0	6295	356.872920722134	0.38
0	6299	357.137120722134	0.264
0	6335	358.645320722134	1.508
0	6355	359.235720722134	0.292
0	6363	359.663920722134	0.428
0	6385	361.139120722134	1.475
0	6439	363.307920722134	0.102
0	6455	364.031120722134	0.723
0	6479	365.017239196124	0.295
0	6489	365.833439196124	0.816
0	6503	366.583720722134	0.259
0	6527	367.556920722134	0.973
0	6539	368.202120722134	0.645
0	6553	368.732320722134	0.53
0	6571	369.705520722134	0.973
0	6599	371.675920722134	0.985
0	6647	374.306720722134	0.024
0	6657	374.950920722134	0.644
0	6693	377.146920722134	1.566
0	6723	378.402120722134	1.255
0	6733	378.944320722134	0.542
0	6751	380.005839196124	1.22
0	6753	380.011039196124	0.005
0	6755	380.022239196124	0.011
0	6763	380.324920722134	1.1
0	6779	381.042439196124	1.02
0	6821	384.174639196124	3.132
0	6857	385.944520722134	3.367
0	6861	386.270720722134	0.326
0	6867	386.475920722134	0.205
0	6871	386.484320722134	0.004
0	6879	386.770520722134	0.286
0	6893	387.505720722134	0.735
0	6917	388.994920722134	1.489
0	6937	391.142639196124	1.974
0	6955	392.280320722134	0.961
0	7003	396.349439196124	1.206
0	7015	397.008720722134	2.445
0	7019	397.113920722134	0.105
0	7025	397.755639196124	1.406
0	7075	400.312120722134	3.198
0	7089	400.825239196124	2.163
0	7097	401.043320722134	0.731
0	7099	401.175439196124	0.35
0	7111	401.931520722134	0.888
0	7117	402.185639196124	1.01
0	7127	402.411839196124	0.226
0	7147	403.821720722134	1.89
0	7199	408.301439196124	1.909
0	7213	409.576320722134	2.366
0	7287	414.092839196124	4.413
0	7289	414.599720722134	1.694
0	7311	415.745239196124	0.857
0	7317	415.815439196124	0.07
0	7325	416.341639196124	0.526
0	7371	418.890039196124	1.753
0	7387	419.461239196124	0.571
0	7417	420.997839196124	0.306
0	7475	424.205439196124	2.595
0	7477	424.239720722134	3.28
0	7485	424.481639196124	0.276
0	7487	424.500839196124	0.019
0	7497	424.992320722134	0.117
0	7499	425.010039196124	0.509
0	7515	426.068239196124	1.058
0	7537	427.756439196124	1.688
0	7559	429.520639196124	1.764
0	7571	430.132839196124	0.612
0	7581	431.017239196124	0.442
0	7583	431.203520722134	6.211
0	7587	431.445439196124	0.428
0	7591	431.505639196124	0.06
0	7595	431.668839196124	0.163
0	7601	432.127720722134	0.924
0	7609	432.366039196124	0.697
0	7611	432.400120722134	0.136
0	7635	433.602320722134	1.202
0	7645	434.043520722134	0.441
0	7655	434.442720722134	0.399
0	7661	435.251439196124	1.419
0	7669	435.458120722134	0.204
0	7707	438.081520722134	1.151
0	7731	439.091920722134	0.505
0	7741	439.415120722134	0.323
0	7745	439.684039196124	0.697
0	7749	440.120320722134	0.705
0	7757	440.550520722134	0.43
0	7765	440.808239196124	1.124
0	7773	441.153439196124	0.345
0	7775	441.174920722134	0.312
0	7777	441.284120722134	0.109
0	7787	442.289320722134	1.005
0	7877	448.102920722134	1.602
0	7901	448.963239196124	4.073
0	7923	450.672120722134	2.569
0	7941	451.764320722134	1.092
0	7973	454.148439196124	5.185
0	8023	456.302320722134	0.033
0	8043	457.142039196124	0.482
0	8067	458.726520722134	2.424
0	8117	461.103039196124	0.093
0	8129	462.347239196124	1.244
0	8141	462.881520722134	0.249
0	8143	463.218720722134	0.337
0	8163	464.832920722134	1.614
0	8185	466.160520722134	0.052
0	8205	467.123720722134	0.963
0	8219	467.777639196124	1.205
0	8235	468.527720722134	0.126
0	8239	468.712920722134	0.185
0	8283	471.175839196124	3.398
0	8285	471.243039196124	0.067
0	8289	471.606239196124	0.363
0	8303	472.189439196124	0.583
0	8307	472.372120722134	3.659
0	8313	472.875320722134	0.503
0	8317	472.948639196124	0.759
0	8327	473.416839196124	0.468
0	8335	473.881039196124	0.464
0	8337	474.058520722134	1.183
0	8449	481.159520722134	2.48
0	8479	482.688639196124	3.941
0	8483	482.872839196124	0.184
0	8487	483.236120722134	0.3
0	8515	485.428039196124	2.555
0	8553	487.876320722134	4.64
0	8555	487.987520722134	0.111
0	8577	489.600720722134	1.613
0	8579	489.621920722134	0.021
0	8591	490.106439196124	0.036
0	8619	491.487120722134	1.865
0	8621	491.512320722134	0.025
0	8623	491.554639196124	1.448
0	8625	491.677520722134	0.165
0	8631	491.854839196124	0.3
0	8641	492.090239196124	0.061
0	8659	493.263720722134	1.586
0	8687	495.129439196124	3.039
0	8699	495.709639196124	0.58
0	8749	498.207920722134	1.311
1	31	1.886862221343	0.498
1	59	3.562958735122	0.307
1	149	7.693520722134	3.314
1	163	8.701720722134	1.008
1	175	9.344920722134	0.643
1	333	18.525520722134	1.819
1	351	19.486720722134	0.961
1	371	21.208120722134	0.332
1	465	25.391720722134	0.932
1	551	29.566520722134	0.752
1	585	31.711920722134	0.854
1	591	31.814120722134	0.102
1	681	37.369720722134	1.646
1	735	39.381920722134	2.012
1	917	49.862120722134	0.446
1	943	51.190720722134	0.179
1	1105	60.947120722134	0.86
1	1145	63.435520722134	0.148
1	1149	63.455720722134	0.02
1	1195	65.054920722134	1.599
1	1199	65.180120722134	0.125
1	1209	65.844320722134	0.664
1	1355	74.668920722134	0.426
1	1427	79.709320722134	1.765
1	1573	87.479320722134	0.281
1	1593	89.280720722134	1.189
1	1631	90.997120722134	0.858
1	1639	91.216320722134	0.219
1	1729	96.401320722134	0.08
1	1747	97.544520722134	1.143
1	1847	103.073920722134	0.611
1	1857	103.247120722134	0.173
1	1875	104.140320722134	0.893
1	1935	107.515920722134	2.649
1	1957	108.464320722134	0.14
1	2005	110.688520722134	2.224
1	2033	112.185920722134	0.271
1	2047	113.574120722134	1.388
1	2063	114.096320722134	0.522
1	2065	114.120520722134	0.024
1	2069	114.355720722134	0.235
1	2085	115.396920722134	1.041
1	2261	125.803920722134	0.206
1	2365	131.657520722134	1.564
1	2465	137.164920722134	0.528
1	2547	144.126520722134	2.567
1	2721	152.862920722134	0.275
1	2807	158.579720722134	0.284
1	2811	158.909920722134	0.33
1	2879	162.798120722134	3.888
1	3015	170.006320722134	3.258
1	3051	171.941920722134	0.953
1	3053	172.139120722134	0.197
1	3097	174.975320722134	2.836
1	3105	175.442520722134	0.467
1	3111	176.055720722134	0.613
1	3127	176.658920722134	0.603
1	3177	179.550320722134	1.703
1	3199	180.457520722134	0.907
1	3269	184.479120722134	0.524
1	3291	185.713320722134	1.234
1	3409	190.729920722134	2.278
1	3411	190.796120722134	0.066
1	3413	190.915320722134	0.119
1	3419	191.153520722134	0.238
1	3429	191.694720722134	0.541
1	3565	199.439720722134	3.239
1	3617	203.486320722134	1.114
1	3625	204.402520722134	0.916
1	3699	208.368120722134	2.292
1	3729	209.437520722134	0.594
1	3745	210.165720722134	0.728
1	3813	213.778520722134	0.101
1	3823	214.613720722134	0.835
1	4009	227.407120722134	0.808
1	4013	227.547320722134	0.14
1	4021	227.880520722134	0.333
1	4035	228.415720722134	0.535
1	4039	228.680920722134	0.265
1	4043	228.791120722134	0.11
1	4071	230.078320722134	1.287
1	4121	232.748720722134	1.335
1	4145	234.533120722134	0.672
1	4211	238.294520722134	2.649
1	4223	238.909720722134	0.615
1	4263	241.559320722134	0.38
1	4277	242.220520722134	0.661
1	4311	245.061720722134	2.841
1	4329	245.804920722134	0.743
1	4335	246.242120722134	0.437
1	4347	247.196320722134	0.954
1	4361	247.999520722134	0.803
1	4457	253.297920722134	2.649
1	4707	269.193920722134	0.894
1	4723	270.619320722134	0.996
1	4801	275.120920722134	0.875
1	4841	276.964320722134	1.39
1	4853	278.644520722134	1.68
1	4885	280.157120722134	0.355
1	4901	281.044320722134	0.887
1	4951	283.937520722134	2.893
1	4971	284.551920722134	0.29
1	5011	287.209720722134	0.795
1	5043	289.506120722134	0.16
1	5097	292.290320722134	2.784
1	5177	295.857520722134	3.567
1	5209	297.728120722134	0.81
1	5333	304.621720722134	0.852
1	5889	334.679320722134	1.096
1	6011	342.497320722134	0.504
1	6065	343.987520722134	1.49
1	6111	347.226720722134	3.239
1	6121	348.042920722134	0.816
1	6159	350.326120722134	2.283
1	6221	353.152520722134	0.512
1	6243	353.902720722134	0.75
1	6347	358.943520722134	0.298
1	6395	361.673320722134	0.534
1	6397	361.751520722134	0.078
1	6429	363.205720722134	1.454
1	6493	366.165320722134	2.134
1	6497	366.324520722134	0.159
1	6607	372.130120722134	0.454
1	6625	373.249320722134	1.119
1	6645	374.282520722134	1.033
1	6659	375.081120722134	0.13
1	6661	375.222320722134	0.141
1	6665	375.436520722134	0.214
1	6669	375.580720722134	0.144
1	6739	379.224720722134	0.14
1	6777	381.005120722134	0.68
1	6797	382.577320722134	1.572
1	6945	391.319120722134	2.324
1	6987	394.563520722134	2.283
1	7151	403.880920722134	0.059
1	7269	412.905520722134	3.329
1	7359	418.201120722134	0.321
1	7365	418.306320722134	0.105
1	7413	420.959520722134	2.653
1	7493	424.757920722134	0.518
1	7663	435.253920722134	0.811
1	7683	436.930320722134	1.472
1	7797	442.451520722134	0.162
1	7853	446.500720722134	4.049
1	7949	452.136520722134	0.372
1	7953	452.490720722134	0.354
1	8021	456.269120722134	1.889
1	8101	460.360720722134	1.634
1	8105	460.496920722134	0.136
1	8109	460.558120722134	0.061
1	8133	462.632320722134	2.074
1	8177	465.726120722134	0.893
1	8183	466.108320722134	0.382
1	8209	467.164920722134	0.041
1	8211	467.306120722134	0.141
1	8213	467.409320722134	0.103
1	8233	468.401520722134	0.992
1	8361	476.142720722134	2.084
1	8373	477.075120722134	0.466
1	8397	478.679320722134	1.604
1	8459	481.632720722134	0.473
1	8485	482.935920722134	1.303
1	8665	493.987920722134	0.724
1	8671	494.352320722134	0.182
1	8677	494.740520722134	0.388
0	8797	501.999039196124	0.063
0	8799	502.270520722134	0.953
0	8825	504.004720722134	1.734
0	8829	504.159239196124	2.16
0	8871	507.202839196124	1.21
0	8883	508.193320722134	2.445
0	8895	509.008039196124	1.805
0	8901	509.324239196124	0.316
0	8911	509.658439196124	0.334
0	8945	510.790639196124	1.132
0	8949	511.216320722134	0.511
0	8977	512.430520722134	1.214
0	9023	514.573839196124	0.411
0	9029	514.858120722134	1.184
0	9063	516.600720722134	1.159
0	9103	518.936120722134	0.35
0	9117	519.674639196124	1.113
0	9131	520.393320722134	1.457
0	9149	521.013239196124	0.433
0	9163	521.969520722134	1.576
0	9167	522.157639196124	0.344
0	9173	522.240720722134	0.271
0	9181	522.602839196124	0.445
0	9183	522.827920722134	0.587
0	9203	523.865120722134	1.037
0	9209	523.971320722134	0.106
0	9223	524.938520722134	0.967
0	9243	526.957720722134	2.019
0	9289	529.593439196124	4.09
0	9327	531.944320722134	2.134
0	9329	531.994520722134	0.05
0	9333	532.101720722134	0.107
0	9335	532.246920722134	0.145
0	9339	532.485839196124	1.446
0	9343	532.601120722134	0.354
0	9345	532.605039196124	0.119
0	9355	533.137239196124	0.532
0	9359	533.219320722134	0.618
0	9387	534.991920722134	0.363
0	9397	535.832320722134	0.42
0	9401	535.941520722134	0.109
0	9409	536.257639196124	1.56
0	9413	536.896720722134	0.955
0	9435	537.910920722134	1.014
0	9491	540.853639196124	0.381
0	9535	542.608039196124	1.339
0	9543	543.039239196124	0.431
0	9563	543.592920722134	2.13
0	9601	546.136320722134	2.481
0	9615	546.749520722134	0.613
0	9623	546.967720722134	0.218
0	9625	546.996839196124	3.238
0	9639	547.609920722134	0.642
0	9651	548.163039196124	1.166
0	9661	548.857120722134	1.247
0	9675	549.472439196124	0.571
0	9683	549.815520722134	0.509
0	9713	551.323920722134	0.475
0	9717	551.422839196124	1.348
0	9731	552.621039196124	1.198
0	9787	555.295920722134	0.117
0	9795	555.707639196124	1.464
0	9803	556.049320722134	0.109
0	9809	556.356520722134	0.307
0	9823	557.456720722134	1.1
0	9837	558.541239196124	0.159
0	9839	559.055920722134	1.599
0	9851	559.889439196124	1.348
0	9893	562.202320722134	1.424
0	9897	562.208720722134	0.003
0	9937	564.904920722134	2.696
0	9949	565.512120722134	0.607
0	9951	565.827039196124	4.672
0	9957	566.202320722134	0.69
0	9959	566.351520722134	0.149
0	9975	568.008720722134	1.657
0	9987	569.012439196124	1.052
0	10015	570.896120722134	1.252
0	10041	573.009320722134	2.113
0	10057	574.283520722134	1.274
0	10059	574.317720722134	0.034
0	10069	574.783920722134	0.466
0	10075	575.269239196124	0.499
0	10077	575.314120722134	0.53
0	10117	577.915439196124	2.646
0	10121	578.451639196124	0.536
0	10137	579.814520722134	2.865
0	10155	581.683839196124	3.232
0	10195	583.571239196124	0.87
0	10197	583.701120722134	0.668
0	10199	583.820320722134	0.119
0	10201	583.901520722134	0.081
0	10203	583.966720722134	0.065
0	10211	584.240920722134	0.274
0	10213	584.363120722134	0.122
0	10245	586.404320722134	2.041
0	10251	586.750520722134	0.346
0	10269	588.003920722134	0.756
0	10291	588.794239196124	0.56
0	10303	589.604439196124	0.81
0	10305	590.115639196124	0.511
0	10309	590.231839196124	0.116
0	10315	590.749039196124	0.517
0	10335	591.566439196124	0.252
0	10371	593.839520722134	0.419
0	10387	594.673720722134	0.834
0	10389	594.706920722134	0.033
0	10395	594.935120722134	0.228
0	10413	596.049320722134	1.114
0	10417	596.238520722134	0.189
0	10429	597.155720722134	0.917
0	10441	597.646920722134	0.491
0	10445	597.914239196124	0.068
0	10461	598.734439196124	0.82
0	10465	598.956639196124	0.222
0	10471	599.353120722134	1.706
0	10495	600.425839196124	1.469
0	10561	604.445439196124	0.537
0	10567	604.739639196124	0.294
0	10577	605.434839196124	0.695
0	10583	605.559039196124	0.124
0	10587	605.681239196124	0.122
0	10589	605.779439196124	0.098
0	10615	606.698639196124	0.919
0	10625	607.008039196124	0.113
0	10627	607.017239196124	0.009
0	10635	607.172320722134	0.083
0	10637	607.184439196124	0.167
0	10657	608.356520722134	1.184
0	10659	608.443720722134	0.087
0	10673	609.279920722134	0.836
0	10681	609.927120722134	0.647
0	10685	610.123320722134	0.196
0	10715	611.796720722134	0.386
0	10717	611.871920722134	0.075
0	10721	612.046120722134	0.174
0	10725	612.125320722134	0.079
0	10731	612.241439196124	1.843
0	10759	614.840039196124	1.455
0	10787	616.584920722134	1.381
0	10817	618.061320722134	0.325
0	10839	618.849720722134	0.394
0	10887	621.971920722134	3.122
0	10957	626.437839196124	1.556
0	10965	626.795039196124	0.357
0	11005	629.612920722134	3.176
0	11027	630.403439196124	2.098
0	11053	632.698320722134	2.078
0	11067	632.976839196124	0.013
0	11075	633.613520722134	0.915
0	11131	637.494039196124	4.517
0	11139	637.959239196124	0.465
0	11159	639.808720722134	6.195
0	11183	641.371439196124	3.412
0	11195	641.747639196124	0.376
0	11201	642.106839196124	0.359
0	11203	642.205920722134	2.397
0	11205	642.299039196124	0.192
0	11219	642.749439196124	0.225
0	11227	643.423639196124	0.674
0	11235	643.810839196124	0.387
0	11237	643.842320722134	1.196
0	11239	643.919039196124	0.108
0	11241	644.081520722134	0.239
0	11245	644.416239196124	0.497
0	11257	645.021439196124	0.605
0	11281	647.010720722134	2.929
0	11299	648.193120722134	0.235
0	11347	651.295320722134	3.102
0	11351	651.827520722134	0.532
0	11361	652.241720722134	0.414
0	11367	652.400920722134	0.159
0	11369	652.438039196124	0.433
0	11379	652.778239196124	0.34
0	11409	654.097120722134	1.696
0	11429	655.331320722134	1.234
0	11433	655.450520722134	0.119
0	11457	657.069720722134	1.619
0	11459	657.091439196124	0.817
0	11497	659.136920722134	2.067
0	11513	660.510120722134	1.373
0	11545	662.359720722134	1.315
0	11559	663.084839196124	1.268
0	11563	663.422039196124	0.337
0	11577	663.914520722134	0.152
0	11579	663.974720722134	0.06
0	11581	664.286239196124	0.864
0	11583	664.295439196124	0.009
0	11621	665.895920722134	1.921
0	11633	666.378320722134	0.097
0	11653	667.277639196124	0.595
0	11661	667.792839196124	0.515
0	11663	667.793039196124	0
0	11667	668.050239196124	0.257
0	11689	669.008920722134	0.125
0	11691	669.086639196124	0.078
0	11699	669.667120722134	0.658
0	11741	671.834320722134	2.167
0	11775	673.323720722134	1.033
0	11801	674.890239196124	1.67
0	11827	676.431839196124	1.197
0	11833	676.785039196124	0.353
0	11851	677.255239196124	0.47
0	11873	678.535639196124	0.64
0	11881	678.625720722134	0.065
0	11887	678.726920722134	0.101
0	11967	684.115239196124	0.288
0	11971	684.427439196124	0.312
0	11989	685.046120722134	6.319
0	12019	686.566639196124	2.139
0	12029	688.308239196124	0.77
0	12033	688.376320722134	3.33
0	12035	688.552520722134	0.176
0	12037	688.556720722134	0.004
0	12043	688.812439196124	0.504
0	12053	689.472639196124	0.66
0	12059	689.791920722134	1.235
0	12071	690.719039196124	0.086
0	12089	691.479239196124	0.76
0	12157	695.114039196124	0.122
0	12163	695.614239196124	0.5
0	12171	696.084439196124	0.47
0	12197	696.923639196124	0.839
0	12221	697.828839196124	0.905
0	12253	699.815720722134	6.765
0	12265	700.894920722134	1.079
0	12271	701.264839196124	0.67
0	12279	701.430120722134	0.535
0	12285	701.527039196124	0.262
0	12291	701.825239196124	0.298
0	12309	702.555520722134	0.431
0	12313	702.660639196124	0.38
0	12323	703.102839196124	0.442
0	12335	704.243039196124	1.14
0	12341	704.446239196124	0.203
0	12351	705.213439196124	0.767
0	12369	706.930639196124	1.717
0	12397	708.230839196124	1.3
0	12409	708.793920722134	1.578
0	12415	708.971239196124	0.394
0	12421	709.313439196124	0.342
0	12463	711.231120722134	0.06
0	12481	712.086839196124	2.388
0	12489	712.512320722134	1.281
0	12493	712.612039196124	0.525
0	12519	714.122239196124	1.51
0	12523	714.314439196124	0.192
0	12551	715.427720722134	1.418
0	12561	715.667920722134	0.24
0	12567	716.057120722134	0.389
0	12585	716.744320722134	0.687
0	12603	718.377520722134	1.633
0	12619	718.829639196124	0.193
0	12625	719.050920722134	0.18
0	12633	719.554120722134	0.503
0	12645	720.078839196124	1.249
0	12677	721.804639196124	0.007
0	12685	722.129839196124	0.325
0	12693	722.513039196124	0.383
0	12695	722.821520722134	2.962
0	12763	726.655920722134	3.48
0	12789	727.857639196124	1.084
0	12797	728.452120722134	1.796
0	12801	728.638839196124	0.781
0	12805	728.891320722134	0.439
0	12823	729.665720722134	0.202
0	12851	730.897920722134	1.232
0	12861	731.468120722134	0.57
0	12893	733.015039196124	4.376
0	12907	733.648520722134	0.403
0	12911	733.770720722134	0.122
0	12961	737.076120722134	0.046
0	12973	737.699320722134	0.623
0	12989	738.523520722134	0.824
0	13017	739.500320722134	0.013
0	13035	740.274520722134	0.774
0	13049	741.051720722134	0.777
0	13063	742.050920722134	0.999
0	13089	743.217439196124	1.753
0	13105	743.553039196124	0.019
0	13129	745.443239196124	1.89
0	13217	750.304520722134	3.197
0	13239	751.302920722134	0.086
0	13243	751.538120722134	0.235
0	13267	752.490320722134	0.952
0	13269	752.549520722134	0.059
0	13271	752.559720722134	0.01
0	13277	752.717439196124	0.121
0	13289	753.437920722134	0.878
0	13291	753.838120722134	0.4
0	13297	754.431639196124	1.714
0	13303	754.785839196124	0.354
0	13327	755.711039196124	0.925
0	13329	755.762239196124	0.051
0	13365	757.329439196124	1.567
0	13381	758.044320722134	4.206
0	13389	758.175520722134	0.131
0	13401	758.796720722134	0.621
0	13443	761.473039196124	3.35
0	13503	764.903120722134	3.053
0	13505	764.908320722134	0.005
0	13531	766.498039196124	3.024
0	13535	766.638239196124	0.14
0	13537	766.763520722134	1.855
0	13565	768.847639196124	1.688
0	13625	772.472120722134	0.726
0	13667	774.948720722134	0.329
0	13671	775.210920722134	0.262
0	13683	776.082120722134	0.871
0	13685	776.430320722134	0.348
0	13691	776.701039196124	5.278
0	13703	777.100520722134	0.67
0	13711	777.407239196124	0.706
0	13759	779.914920722134	0.793
0	13761	779.938839196124	1.13
0	13773	780.863120722134	0.948
0	13797	783.279320722134	2.416
0	13835	784.550520722134	1.271
0	13839	784.832720722134	0.282
0	13865	785.629920722134	0.797
0	13887	786.281120722134	0.651
0	13889	786.361439196124	1.251
0	13897	786.666639196124	0.305
0	13961	790.932320722134	4.651
0	13965	791.343520722134	0.411
0	13983	792.190720722134	0.847
0	13995	792.317239196124	2.252
0	14043	795.580839196124	0.605
0	14047	795.684120722134	0.455